

     ************************************************************************
     *************** Dalton - An Electronic Structure Program ***************
     ************************************************************************

    This is output from DALTON 2013.1
   ----------------------------------------------------------------------------
    NOTE:
     
    Dalton is an experimental code for the evaluation of molecular
    properties using (MC)SCF, DFT, CI, and CC wave functions.
    The authors accept no responsibility for the performance of
    the code or for the correctness of the results.
     
    The code (in whole or part) is provided under a licence and
    is not to be reproduced for further distribution without
    the written permission of the authors or their representatives.
     
    See the home page "http://daltonprogram.org" for further information.
     
    If results obtained with this code are published,
    the appropriate citations would be both of:
     
       K. Aidas, C. Angeli, K. L. Bak, V. Bakken, R. Bast,
       L. Boman, O. Christiansen, R. Cimiraglia, S. Coriani,
       P. Dahle, E. K. Dalskov, U. Ekstroem, T. Enevoldsen,
       J. J. Eriksen, P. Ettenhuber, B. Fernandez, L. Ferrighi,
       H. Fliegl, L. Frediani, K. Hald, A. Halkier, C. Haettig,
       H. Heiberg, T. Helgaker, A. C. Hennum, H. Hettema,
       E. Hjertenaes, S. Hoest, I.-M. Hoeyvik, M. F. Iozzi,
       B. Jansik, H. J. Aa. Jensen, D. Jonsson, P. Joergensen,
       J. Kauczor, S. Kirpekar, T. Kjaergaard, W. Klopper,
       S. Knecht, R. Kobayashi, H. Koch, J. Kongsted, A. Krapp,
       K. Kristensen, A. Ligabue, O. B. Lutnaes, J. I. Melo,
       K. V. Mikkelsen, R. H. Myhre, C. Neiss, C. B. Nielsen,
       P. Norman, J. Olsen, J. M. H. Olsen, A. Osted,
       M. J. Packer, F. Pawlowski, T. B. Pedersen, P. F. Provasi,
       S. Reine, Z. Rinkevicius, T. A. Ruden, K. Ruud, V. Rybkin,
       P. Salek, C. C. M. Samson, A. Sanchez de Meras, T. Saue,
       S. P. A. Sauer, B. Schimmelpfennig, K. Sneskov,
       A. H. Steindal, K. O. Sylvester-Hvid, P. R. Taylor,
       A. M. Teale, E. I. Tellgren, D. P. Tew, A. J. Thorvaldsen,
       L. Thoegersen, O. Vahtras, M. A. Watson, D. J. D. Wilson,
       M. Ziolkowski and H. Aagren,
       "The Dalton quantum chemistry program system",
       WIREs Comput. Mol. Sci. 2013. (doi: 10.1002/wcms.1172)
    
    and
    
       Dalton, a Molecular Electronic Structure Program,
       Release DALTON2013.1 (2013), see http://daltonprogram.org
   ----------------------------------------------------------------------------

    Authors in alphabetical order (major contribution(s) in parenthesis):

  Kestutis Aidas,           Vilnius University,           Lithuania   (QM/MM)
  Celestino Angeli,         University of Ferrara,        Italy       (NEVPT2)
  Keld L. Bak,              UNI-C,                        Denmark     (AOSOPPA, non-adiabatic coupling, magnetic properties)
  Vebjoern Bakken,          University of Oslo,           Norway      (DALTON; geometry optimizer, symmetry detection)
  Radovan Bast,             KTH Stockholm,                Sweden      (DALTON installation and execution frameworks)
  Linus Boman,              NTNU,                         Norway      (Cholesky decomposition and subsystems)
  Ove Christiansen,         Aarhus University,            Denmark     (CC module)
  Renzo Cimiraglia,         University of Ferrara,        Italy       (NEVPT2)
  Sonia Coriani,            University of Trieste,        Italy       (CC module, MCD in RESPONS)
  Paal Dahle,               University of Oslo,           Norway      (Parallelization)
  Erik K. Dalskov,          UNI-C,                        Denmark     (SOPPA)
  Thomas Enevoldsen,        Univ. of Southern Denmark,    Denmark     (SOPPA)
  Janus J. Eriksen,         Aarhus University,            Denmark     (PE-MP2/SOPPA, TDA)
  Berta Fernandez,          U. of Santiago de Compostela, Spain       (doublet spin, ESR in RESPONS)
  Lara Ferrighi,            Aarhus University,            Denmark     (PCM Cubic response)
  Heike Fliegl,             University of Oslo,           Norway      (CCSD(R12))
  Luca Frediani,            UiT The Arctic U. of Norway,  Norway      (PCM)
  Bin Gao,                  UiT The Arctic U. of Norway,  Norway      (Gen1Int library)
  Christof Haettig,         Ruhr-University Bochum,       Germany     (CC module)
  Kasper Hald,              Aarhus University,            Denmark     (CC module)
  Asger Halkier,            Aarhus University,            Denmark     (CC module)
  Hanne Heiberg,            University of Oslo,           Norway      (geometry analysis, selected one-electron integrals)
  Trygve Helgaker,          University of Oslo,           Norway      (DALTON; ABACUS, ERI, DFT modules, London, and much more)
  Alf Christian Hennum,     University of Oslo,           Norway      (Parity violation)
  Hinne Hettema,            University of Auckland,       New Zealand (quadratic response in RESPONS; SIRIUS supersymmetry)
  Eirik Hjertenaes,         NTNU,                         Norway      (Cholesky decomposition)
  Maria Francesca Iozzi,    University of Oslo,           Norway      (RPA)
  Brano Jansik              Technical Univ. of Ostrava    Czech Rep.  (DFT cubic response)
  Hans Joergen Aa. Jensen,  Univ. of Southern Denmark,    Denmark     (DALTON; SIRIUS, RESPONS, ABACUS modules, London, and much more)
  Dan Jonsson,              UiT The Arctic U. of Norway,  Norway      (cubic response in RESPONS module)
  Poul Joergensen,          Aarhus University,            Denmark     (RESPONS, ABACUS, and CC modules)
  Joanna Kauczor,           Linkoeping University,        Sweden      (Complex polarization propagator (CPP) module)
  Sheela Kirpekar,          Univ. of Southern Denmark,    Denmark     (Mass-velocity & Darwin integrals)
  Wim Klopper,              KIT Karlsruhe,                Germany     (R12 code in CC, SIRIUS, and ABACUS modules)
  Stefan Knecht,            ETH Zurich,                   Switzerland (Parallel CI and MCSCF)
  Rika Kobayashi,           Australian National Univ.,    Australia   (DIIS in CC, London in MCSCF)
  Henrik Koch,              NTNU,                         Norway      (CC module, Cholesky decomposition)
  Jacob Kongsted,           Univ. of Southern Denmark,    Denmark     (Polarizable embedding, QM/MM)
  Andrea Ligabue,           University of Modena,         Italy       (CTOCD, AOSOPPA)
  Ola B. Lutnaes,           University of Oslo,           Norway      (DFT Hessian)
  Juan I. Melo,             University of Buenos Aires,   Argentina   (LRESC, Relativistic Effects on NMR Shieldings)
  Kurt V. Mikkelsen,        University of Copenhagen,     Denmark     (MC-SCRF and QM/MM)
  Rolf H. Myhre,            NTNU,                         Norway      (Cholesky, subsystems and ECC2)
  Christian Neiss,          Univ. Erlangen-Nuernberg,     Germany     (CCSD(R12))
  Christian B. Nielsen,     University of Copenhagen,     Denmark     (QM/MM)
  Patrick Norman,           Linkoeping University,        Sweden      (Cubic response and complex response in RESPONS)
  Jeppe Olsen,              Aarhus University,            Denmark     (SIRIUS CI/density modules)
  Jogvan Magnus H. Olsen,   Univ. of Southern Denmark,    Denmark     (Polarizable embedding, PE library, QM/MM)
  Anders Osted,             Copenhagen University,        Denmark     (QM/MM)
  Martin J. Packer,         University of Sheffield,      UK          (SOPPA)
  Filip Pawlowski,          Kazimierz Wielki University,  Poland      (CC3)
  Thomas B. Pedersen,       University of Oslo,           Norway      (Cholesky decomposition)
  Patricio F. Provasi,      University of Northeastern,   Argentina   (Analysis of coupling constants in localized orbitals)
  Zilvinas Rinkevicius,     KTH Stockholm,                Sweden      (open-shell DFT, ESR)
  Elias Rudberg,            KTH Stockholm,                Sweden      (DFT grid and basis info)
  Torgeir A. Ruden,         University of Oslo,           Norway      (Numerical derivatives in ABACUS)
  Kenneth Ruud,             UiT The Arctic U. of Norway,  Norway      (DALTON; ABACUS magnetic properties and  much more)
  Pawel Salek,              KTH Stockholm,                Sweden      (DALTON; DFT code)
  Claire C. M. Samson       University of Karlsruhe       Germany     (Boys localization, r12 integrals in ERI)
  Alfredo Sanchez de Meras, University of Valencia,       Spain       (CC module, Cholesky decomposition)
  Trond Saue,               Paul Sabatier University,     France      (direct Fock matrix construction)
  Stephan P. A. Sauer,      University of Copenhagen,     Denmark     (SOPPA(CCSD), SOPPA prop., AOSOPPA, vibrational g-factors)
  Bernd Schimmelpfennig,    Forschungszentrum Karlsruhe,  Germany     (AMFI module)
  Kristian Sneskov,         Aarhus University,            Denmark     (QM/MM, PE-CC)
  Arnfinn H. Steindal,      UiT The Arctic U. of Norway,  Norway      (parallel QM/MM)
  K. O. Sylvester-Hvid,     University of Copenhagen,     Denmark     (MC-SCRF)
  Peter R. Taylor,          VLSCI/Univ. of Melbourne,     Australia   (Symmetry handling ABACUS, integral transformation)
  Andrew M. Teale,          University of Nottingham,     England     (DFT-AC, DFT-D)
  David P. Tew,             University of Bristol,        England     (CCSD(R12))
  Olav Vahtras,             KTH Stockholm,                Sweden      (triplet response, spin-orbit, ESR, TDDFT, open-shell DFT)
  David J. Wilson,          La Trobe University,          Australia   (DFT Hessian and DFT magnetizabilities)
  Hans Agren,               KTH Stockholm,                Sweden      (SIRIUS module, RESPONS, MC-SCRF solvation model)
 --------------------------------------------------------------------------------

     Date and time (Linux)  : Mon Jun 30 16:18:40 2014
     Host name              : supermario                              

 * Work memory size             :    64000000 =  488.28 megabytes.

 * Directories for basis set searches:
   1) /home/ignat/projects/beta_water/md/tip3p
   2) /home/ignat/repos/beta/build_gnu/basis


Compilation information
-----------------------

 Who compiled             | ignat
 Host                     | supermario
 System                   | Linux-3.13.6-1-ARCH
 CMake generator          | Unix Makefiles
 Processor                | x86_64
 64-bit integers          | OFF
 MPI                      | ON
 Fortran compiler         | /usr/bin/mpif90
 Fortran compiler version | GNU Fortran (GCC) 4.8.2 20140206 (prerelease)
 C compiler               | /usr/bin/mpicc
 C compiler version       | gcc (GCC) 4.8.2 20140206 (prerelease)
 C++ compiler             | /usr/bin/mpicxx
 C++ compiler version     | unknown
 BLAS                     | /lib64/libblas.so
 LAPACK                   | /lib64/liblapack.so
 Static linking           | OFF
 Last Git revision        | 40009094950fd78a6f3a8f17a3241f141fce048f
 Git branch               | beta_ignat
 Configuration time       | 2014-05-06 17:35:07.255579

 * Parallel with MPI: Using    4 CPUs.


   Content of the .dal input file
 ----------------------------------

**DALTON INPUT                                    
.RUN RESPONSE                                     
.DIRECT                                           
.PARALLELL                                        
**WAVE FUNCTION                                   
.HF                                               
**RESPONSE                                        
.PROPAV                                           
XDIPLEN                                           
.PROPAV                                           
YDIPLEN                                           
.PROPAV                                           
ZDIPLEN                                           
*QUADRATIC                                        
.DIPLEN                                           
**END OF DALTON INPUT                             


   Content of the .mol file
 ----------------------------

ATOMBASIS                                                                      
                                                                               
Comment                                                                        
Atomtypes=2 Charge=0 Nosymm Angstrom                                           
Charge=1.0 Atoms=2 Basis=cc-pVDZ                                               
H   11.75000   11.76000   12.82000                                             
H   11.71000   10.56000   13.74000                                             
Charge=8.0 Atoms=1 Basis=cc-pVDZ                                               
O   11.47000   10.84000   12.86000                                             


       *******************************************************************
       *********** Output from DALTON general input processing ***********
       *******************************************************************

 --------------------------------------------------------------------------------
   Overall default print level:    0
   Print level for DALTON.STAT:    1

    Parallel calculation using MPI
    AO-direct calculation (in sections where implemented)
    HERMIT 1- and 2-electron integral sections will be executed
    "Old" integral transformation used (limited to max 255 basis functions)
    Wave function sections will be executed (SIRIUS module)
    Dynamic molecular response properties section will be executed (RESPONSE module)
 --------------------------------------------------------------------------------


   ****************************************************************************
   *************** Output of molecule and basis set information ***************
   ****************************************************************************


    The two title cards from your ".mol" input:
    ------------------------------------------------------------------------
 1:                                                                         
 2: Comment                                                                 
    ------------------------------------------------------------------------

  Coordinates are entered in Angstrom and converted to atomic units.
          - Conversion factor : 1 bohr = 0.52917721 A

  Atomic type no.    1
  --------------------
  Nuclear charge:   1.00000
  Number of symmetry independent centers:    2
  Number of basis sets to read;    2
  The basis set is "cc-pVDZ" from the basis set library.
  Basis set file used for this atomic type with Z =   1 :
     "/home/ignat/repos/beta/build_gnu/basis/cc-pVDZ"

  Atomic type no.    2
  --------------------
  Nuclear charge:   8.00000
  Number of symmetry independent centers:    1
  Number of basis sets to read;    2
  The basis set is "cc-pVDZ" from the basis set library.
  Basis set file used for this atomic type with Z =   8 :
     "/home/ignat/repos/beta/build_gnu/basis/cc-pVDZ"


                         SYMGRP: Point group information
                         -------------------------------

Point group: C1 


                                 Isotopic Masses
                                 ---------------

                           H           1.007825
                           H           1.007825
                           O          15.994915

                       Total mass:    18.010565 amu
                       Natural abundance:  99.730 %

 Center-of-mass coordinates (a.u.):   21.730146   20.552307   24.390703


  Atoms and basis sets
  --------------------

  Number of atom types :    2
  Total number of atoms:    3

  label    atoms   charge   prim   cont     basis
  ----------------------------------------------------------------------
  H           2    1.0000     7     5      [4s1p|2s1p]                                        
  O           1    8.0000    26    14      [9s4p1d|3s2p1d]                                    
  ----------------------------------------------------------------------
  total:      3   10.0000    40    24
  ----------------------------------------------------------------------
  Spherical harmonic basis used.

  Threshold for neglecting AO integrals:  1.00D-12


  Cartesian Coordinates (a.u.)
  ----------------------------

  Total number of coordinates:    9
  H       :     1  x  22.2042819687    2  y  22.2231792299    3  z  24.2262889224
  H       :     4  x  22.1286929237    5  y  19.9555078799    6  z  25.9648369574
  O       :     7  x  21.6751586537    8  y  20.4846311949    9  z  24.3018779674


   Interatomic separations (in Angstrom):
   --------------------------------------

            H           H           O     
            ------      ------      ------
 H     :    0.000000
 H     :    1.512614    0.000000
 O     :    0.962497    0.954149    0.000000


  Max    interatomic separation is    1.5126 Angstrom (    2.8584 Bohr)
  between atoms    2 and    1, "H     " and "H     ".

  Min HX interatomic separation is    0.9541 Angstrom (    1.8031 Bohr)


  Bond distances (Angstrom):
  --------------------------

                  atom 1     atom 2       distance
                  ------     ------       --------
  bond distance:  O          H            0.962497
  bond distance:  O          H            0.954149


  Bond angles (degrees):
  ----------------------

                  atom 1     atom 2     atom 3         angle
                  ------     ------     ------         -----
  bond angle:     H          O          H            104.220




 Principal moments of inertia (u*A**2) and principal axes
 --------------------------------------------------------

   IA       0.619972          0.031058    0.798894   -0.600669
   IB       1.153060          0.441238    0.528273    0.725422
   IC       1.773032          0.896853   -0.287568   -0.336095


 Rotational constants
 --------------------

 The molecule is planar.

               A                   B                   C

         815164.8807         438293.7185         285036.6554 MHz
           27.190974           14.619905            9.507799 cm-1


@  Nuclear repulsion energy :    9.185066364569 Hartree


                     .---------------------------------------.
                     | Starting in Integral Section (HERMIT) |
                     `---------------------------------------'



    *************************************************************************
    ****************** Output from HERMIT input processing ******************
    *************************************************************************



     ************************************************************************
     ************************** Output from HERINT **************************
     ************************************************************************

 >>>> Total CPU  time used in HERMIT:   0.02 seconds
 >>>> Total wall time used in HERMIT:   0.02 seconds


                        .----------------------------------.
                        | End of Integral Section (HERMIT) |
                        `----------------------------------'



                   .--------------------------------------------.
                   | Starting in Wave Function Section (SIRIUS) |
                   `--------------------------------------------'


 *** Output from Huckel module :

     Using EWMO model:          T
     Using EHT  model:          F
     Number of Huckel orbitals each symmetry:    7

 EWMO - Energy Weighted Maximum Overlap - is a Huckel type method,
        which normally is better than Extended Huckel Theory.
 Reference: Linderberg and Ohrn, Propagators in Quantum Chemistry (Wiley, 1973)

 Huckel EWMO eigenvalues for symmetry :  1
          -20.684951      -1.611193      -0.777601      -0.688878      -0.616200
           -0.232566      -0.168511

 **********************************************************************
 *SIRIUS* a direct, restricted step, second order MCSCF program       *
 **********************************************************************

 
     Date and time (Linux)  : Mon Jun 30 16:18:41 2014
     Host name              : supermario                              

 Title lines from ".mol" input file:
                                                                             
     Comment                                                                 

 Print level on unit LUPRI =   2 is   0
 Print level on unit LUW4  =   2 is   5

@    Restricted, closed shell Hartree-Fock calculation.

@    Time-dependent Hartree-Fock calculation (random phase approximation).
 Fock matrices are calculated directly and in parallel without use of integrals on disk.

 Initial molecular orbitals are obtained according to
 ".MOSTART EWMO  " input option

     Wave function specification
     ============================
@    For the wave function of type :      >>> HF <<<
@    Number of closed shell electrons          10
@    Number of electrons in active shells       0
@    Total charge of the molecule               0

@    Spin multiplicity and 2 M_S                1         0
     Total number of symmetries                 1
@    Reference state symmetry                   1

     Orbital specifications
     ======================
     Abelian symmetry species          All |    1
                                       --- |  ---
@    Occupied SCF orbitals               5 |    5
     Secondary orbitals                 19 |   19
     Total number of orbitals           24 |   24
     Number of basis functions          24 |   24

     Optimization information
     ========================
@    Number of configurations                 1
@    Number of orbital rotations             95
     ------------------------------------------
@    Total number of variables               96

     Maximum number of Fock   iterations      0
     Maximum number of DIIS   iterations     60
     Maximum number of QC-SCF iterations     60
     Threshold for SCF convergence     1.00D-05


 >>>>> DIIS optimization of Hartree-Fock <<<<<

 C1-DIIS algorithm; max error vectors =    5

 Iter      Total energy        Error norm    Delta(E)  DIIS dim.
 -----------------------------------------------------------------------------
   1  Screening settings (-IFTHRS, DIFDEN)   -6    T
@  1    -75.8497793587        1.64375D+00   -7.58D+01    1
      Virial theorem: -V/T =      2.000036
@      MULPOP H       0.28; H       0.28; O      -0.55; 
 -----------------------------------------------------------------------------
   2  Screening settings (-IFTHRS, DIFDEN)   -6    T
@  2    -76.0206943522        3.17902D-01   -1.71D-01    2
      Virial theorem: -V/T =      2.001419
@      MULPOP H       0.13; H       0.13; O      -0.26; 
 -----------------------------------------------------------------------------
   3  Screening settings (-IFTHRS, DIFDEN)  -10    F
@  3    -76.0261785895        7.06463D-02   -5.48D-03    3
      Virial theorem: -V/T =      2.000247
@      MULPOP H       0.15; H       0.15; O      -0.30; 
 -----------------------------------------------------------------------------
   4  Screening settings (-IFTHRS, DIFDEN)  -10    T
@  4    -76.0266817815        1.94341D-02   -5.03D-04    4
      Virial theorem: -V/T =      2.000819
@      MULPOP H       0.15; H       0.15; O      -0.30; 
 -----------------------------------------------------------------------------
   5  Screening settings (-IFTHRS, DIFDEN)  -10    T
@  5    -76.0267063940        6.80804D-03   -2.46D-05    5
      Virial theorem: -V/T =      2.000431
@      MULPOP H       0.15; H       0.15; O      -0.31; 
 -----------------------------------------------------------------------------
   6  Screening settings (-IFTHRS, DIFDEN)  -10    T
@  6    -76.0267109679        1.39482D-03   -4.57D-06    5
      Virial theorem: -V/T =      2.000532
@      MULPOP H       0.16; H       0.15; O      -0.31; 
 -----------------------------------------------------------------------------
   7  Screening settings (-IFTHRS, DIFDEN)  -10    T
@  7    -76.0267113023        3.20918D-04   -3.34D-07    5
      Virial theorem: -V/T =      2.000544
@      MULPOP H       0.16; H       0.15; O      -0.31; 
 -----------------------------------------------------------------------------
   8  Screening settings (-IFTHRS, DIFDEN)  -10    T
@  8    -76.0267113179        3.27010D-05   -1.56D-08    5
      Virial theorem: -V/T =      2.000547
@      MULPOP H       0.16; H       0.15; O      -0.31; 
 -----------------------------------------------------------------------------
   9  Screening settings (-IFTHRS, DIFDEN)  -10    T
@  9    -76.0267113180        8.23981D-06   -1.42D-10    5

@ *** DIIS converged in   9 iterations !
@     Converged SCF energy, gradient:    -76.026711318046    8.24D-06
    - total time used in SIRFCK :              0.00 seconds


 *** SCF orbital energy analysis ***

 Only the five lowest virtual orbital energies printed in each symmetry.

 Number of electrons :   10
 Orbital occupations :    5

 Sym       Hartree-Fock orbital energies

  1    -20.55077536    -1.33639544    -0.69817168    -0.56696893    -0.49317793
         0.18531795     0.25613290     0.78735646     0.85487199     1.16378579

    E(LUMO) :     0.18531795 au (symmetry 1)
  - E(HOMO) :    -0.49317793 au (symmetry 1)
  ------------------------------------------
    gap     :     0.67849588 au

 >>> Writing SIRIFC interface file <<<

 >>>> CPU and wall time for SCF :       0.213       0.267


                       .-----------------------------------.
                       | >>> Final results from SIRIUS <<< |
                       `-----------------------------------'


@    Spin multiplicity:           1
@    Spatial symmetry:            1
@    Total charge of molecule:    0

@    Final HF energy:             -76.026711318046                 
@    Nuclear repulsion:             9.185066364569
@    Electronic energy:           -85.211777682615

@    Final gradient norm:           0.000008239809

 
     Date and time (Linux)  : Mon Jun 30 16:18:41 2014
     Host name              : supermario                              

 (Only coefficients >0.0100 are printed.)

 Molecular orbitals for symmetry species  1
 ------------------------------------------

    Orbital         1        2        3        4        5        6        7
   1 H   :1s     0.0004  -0.3251   0.5543  -0.3557  -0.0000   0.1021   0.0457
   2 H   :1s    -0.0006   0.1529  -0.1871   0.1360  -0.0000   0.7885   1.4092
   3 H   :2px   -0.0002   0.0099  -0.0150  -0.0023  -0.0277  -0.0076  -0.0079
   4 H   :2py   -0.0007   0.0402  -0.0359   0.0215   0.0089  -0.0225  -0.0249
   5 H   :2pz    0.0000  -0.0080  -0.0094  -0.0246   0.0104  -0.0009   0.0003
   6 H   :1s     0.0004  -0.3328  -0.5606  -0.3483   0.0000   0.0982  -0.0442
   7 H   :1s    -0.0006   0.1568   0.1913   0.1358  -0.0000   0.7682  -1.4334
   8 H   :2px   -0.0002   0.0082   0.0139  -0.0042  -0.0280  -0.0068   0.0072
   9 H   :2py    0.0002  -0.0184  -0.0008  -0.0293   0.0090   0.0049  -0.0075
  10 H   :2pz   -0.0007   0.0378   0.0377   0.0138   0.0105  -0.0225   0.0256
  11 O   :1s    -1.0004   0.0081  -0.0000  -0.0022   0.0000   0.0520  -0.0007
  12 O   :1s    -0.0023  -0.8706   0.0046   0.2961  -0.0000  -0.1424   0.0013
  13 O   :1s     0.0014   0.1224   0.0039   0.1807   0.0000  -0.9192   0.0169
  14 O   :2px   -0.0011  -0.0507   0.0149  -0.3508  -0.8249  -0.1232  -0.0098
  15 O   :2py   -0.0014  -0.0601   0.5616  -0.4318   0.2645  -0.1555  -0.3264
  16 O   :2pz   -0.0019  -0.0839  -0.4407  -0.5666   0.3091  -0.1957   0.2531
  17 O   :2px    0.0007   0.0291  -0.0021   0.0005  -0.0646  -0.0928  -0.0113
  18 O   :2py    0.0009   0.0344  -0.0833   0.0007   0.0207  -0.1173  -0.3793
  19 O   :2pz    0.0012   0.0482   0.0656   0.0007   0.0242  -0.1472   0.2943
  22 O   :3d0   -0.0000  -0.0012  -0.0204  -0.0058   0.0076  -0.0044   0.0161
  23 O   :3d1+  -0.0000  -0.0016  -0.0068  -0.0111  -0.0091  -0.0070   0.0054
  24 O   :3d2+   0.0001   0.0020  -0.0110   0.0046  -0.0100   0.0073   0.0085



 >>>> Total CPU  time used in SIRIUS :      0.23 seconds
 >>>> Total wall time used in SIRIUS :      0.28 seconds

 
     Date and time (Linux)  : Mon Jun 30 16:18:41 2014
     Host name              : supermario                              


                     .---------------------------------------.
                     | End of Wave Function Section (SIRIUS) |
                     `---------------------------------------'



                 .------------------------------------------------.
                 | Starting in Dynamic Property Section (RESPONS) |
                 `------------------------------------------------'


 ------------------------------------------------------------------------------
  RESPONSE  -  an MCSCF, MC-srDFT, DFT, and SOPPA response property program
 ------------------------------------------------------------------------------


 <<<<<<<<<< OUTPUT FROM RESPONSE INPUT PROCESSING >>>>>>>>>>




 CHANGES OF DEFAULTS FOR RSPINP:
 -------------------------------


 AO-direct Fock matrix calculations.

 Default : Using Fock type decoupling of the two-electron density matrix :
    Add DV*(FC+FV) instead of DV*FC to E[2] approximate orbital diagonal



 Quadratic Response calculation
 ------------------------------

 First hyperpolarizability calculation : HYPCAL= T

 Spin of operator A , ISPINA=    0
 Spin of operator B , ISPINB=    0
 Spin of operator C , ISPINC=    0

  1 B-frequencies  0.000000D+00
  1 C-frequencies  0.000000D+00

 Print level                                    : IPRHYP =   2
 Maximum number of iterations in lin.rsp. solver: MAXITL =  60
 Threshold for convergence of linear resp. eq.s : THCLR  = 1.000D-03
 Maximum iterations in optimal orbital algorithm: MAXITO =   5
 Direct one-index transformation                : DIROIT= T

    3 A OPERATORS OF SYMMETRY NO:    1 AND LABELS:

          XDIPLEN 
          YDIPLEN 
          ZDIPLEN 

    3 B OPERATORS OF SYMMETRY NO:    1 AND LABELS:

          XDIPLEN 
          YDIPLEN 
          ZDIPLEN 

    3 C OPERATORS OF SYMMETRY NO:    1 AND LABELS:

          XDIPLEN 
          YDIPLEN 
          ZDIPLEN 


   SCF energy         :      -76.026711318046367
 -- inactive part     :      -85.211777682614951
 -- nuclear repulsion :        9.185066364568581


                     ***************************************
                     *** RHF response calculation (TDHF) ***
                     ***************************************



             Calculation of electronic one-electron expectation values
            ----------------------------------------------------------

 (Note that to get e.g. a dipole moment you must multiply the
  electronic number by -1 and add the nuclear contribution.)

 *** Individual non-zero orbital contributions
 *** to the expectation value for property XDIPLEN  :

     Inactive       1  1 in sym 1 :    43.35053375
     Inactive       2  2 in sym 1 :    43.63595581
     Inactive       3  3 in sym 1 :    43.72519379
     Inactive       4  4 in sym 1 :    43.27391662
     Inactive       5  5 in sym 1 :    43.39034487

     XDIPLEN  inactive part:   217.37594485
     XDIPLEN  active part  :     0.00000000
     XDIPLEN  total        :   217.37594485

 *** Individual non-zero orbital contributions
 *** to the expectation value for property YDIPLEN  :

     Inactive       1  1 in sym 1 :    40.96952347
     Inactive       2  2 in sym 1 :    41.30993736
     Inactive       3  3 in sym 1 :    41.43702345
     Inactive       4  4 in sym 1 :    40.88237930
     Inactive       5  5 in sym 1 :    41.01753233

     YDIPLEN  inactive part:   205.61639592
     YDIPLEN  active part  :     0.00000000
     YDIPLEN  total        :   205.61639592

 *** Individual non-zero orbital contributions
 *** to the expectation value for property ZDIPLEN  :

     Inactive       1  1 in sym 1 :    48.60411013
     Inactive       2  2 in sym 1 :    49.07448115
     Inactive       3  3 in sym 1 :    49.20387143
     Inactive       4  4 in sym 1 :    48.47422306
     Inactive       5  5 in sym 1 :    48.66926697

     ZDIPLEN  inactive part:   244.02595274
     ZDIPLEN  active part  :     0.00000000
     ZDIPLEN  total        :   244.02595274


 Linear response calculations for quadratic response
 - singlet property operator of symmetry    1


 Perturbation symmetry.     KSYMOP:       1
 Perturbation spin symmetry.TRPLET:       F
 Orbital variables.         KZWOPT:      95
 Configuration variables.   KZCONF:       0
 Total number of variables. KZVAR :      95


 QRLRVE -- linear response calculation for symmetry  1
 QRLRVE -- operator label : XDIPLEN 
 QRLRVE -- operator spin  :   0
 QRLRVE -- frequencies :  0.000000



 <<<  SOLVING SETS OF LINEAR EQUATIONS FOR LINEAR RESPONSE PROPERTIES >>>

 Operator symmetry =  1; triplet =   F


 *** THE REQUESTED    1 SOLUTION VECTORS CONVERGED

 Convergence of RSP solution vectors, threshold = 1.00D-03
 ---------------------------------------------------------------
 (dimension of paired reduced space:   12)
 RSP solution vector no.    1; norm of residual   6.55D-04

 *** RSPCTL MICROITERATIONS CONVERGED

 QRLRVE: SINGLET SOLUTION FOR SYMMETRY    1    LABEL   XDIPLEN     FREQUENCY   0.000000D+00

@ QRLRVE:  << XDIPLEN  ; XDIPLEN  >> (   0.00000):     3.44717335879    

@ QRLRVE:  << YDIPLEN  ; XDIPLEN  >> (   0.00000):    0.588404078577    

@ QRLRVE:  << ZDIPLEN  ; XDIPLEN  >> (   0.00000):    0.583060438595    


 QRLRVE -- linear response calculation for symmetry  1
 QRLRVE -- operator label : YDIPLEN 
 QRLRVE -- operator spin  :   0
 QRLRVE -- frequencies :  0.000000



 <<<  SOLVING SETS OF LINEAR EQUATIONS FOR LINEAR RESPONSE PROPERTIES >>>

 Operator symmetry =  1; triplet =   F


 *** THE REQUESTED    1 SOLUTION VECTORS CONVERGED

 Convergence of RSP solution vectors, threshold = 1.00D-03
 ---------------------------------------------------------------
 (dimension of paired reduced space:   12)
 RSP solution vector no.    1; norm of residual   5.79D-04

 *** RSPCTL MICROITERATIONS CONVERGED

 QRLRVE: SINGLET SOLUTION FOR SYMMETRY    1    LABEL   YDIPLEN     FREQUENCY   0.000000D+00

@ QRLRVE:  << XDIPLEN  ; YDIPLEN  >> (   0.00000):    0.588448739721    

@ QRLRVE:  << YDIPLEN  ; YDIPLEN  >> (   0.00000):     6.11780102233    

@ QRLRVE:  << ZDIPLEN  ; YDIPLEN  >> (   0.00000):    -1.06428417264    


 QRLRVE -- linear response calculation for symmetry  1
 QRLRVE -- operator label : ZDIPLEN 
 QRLRVE -- operator spin  :   0
 QRLRVE -- frequencies :  0.000000



 <<<  SOLVING SETS OF LINEAR EQUATIONS FOR LINEAR RESPONSE PROPERTIES >>>

 Operator symmetry =  1; triplet =   F


 *** THE REQUESTED    1 SOLUTION VECTORS CONVERGED

 Convergence of RSP solution vectors, threshold = 1.00D-03
 ---------------------------------------------------------------
 (dimension of paired reduced space:   12)
 RSP solution vector no.    1; norm of residual   6.51D-04

 *** RSPCTL MICROITERATIONS CONVERGED

 QRLRVE: SINGLET SOLUTION FOR SYMMETRY    1    LABEL   ZDIPLEN     FREQUENCY   0.000000D+00

@ QRLRVE:  << XDIPLEN  ; ZDIPLEN  >> (   0.00000):    0.583187747072    

@ QRLRVE:  << YDIPLEN  ; ZDIPLEN  >> (   0.00000):    -1.06435331450    

@ QRLRVE:  << ZDIPLEN  ; ZDIPLEN  >> (   0.00000):     5.50580060765    
 
 ======================================================================
 >>>>>>>>    L I N E A R   R E S P O N S E   F U N C T I O N   <<<<<<<<
 ======================================================================

 The -<<A;B>>(omega_b) functions from vectors generated
 in a *QUADRA calculation of <<A;B,C>>(omega_b,omega_c)

 Note: the accuracy of off-diagonal elements will be linear
 in the convergence threshold THCLR =  1.00D-03


 Perturbation symmetry.     KSYMOP:       1
 Perturbation spin symmetry.TRPLET:       F
 Orbital variables.         KZWOPT:      95
 Configuration variables.   KZCONF:       0
 Total number of variables. KZVAR :      95

@ Singlet linear response function in a.u.

@ A operator, symmetry, frequency:   XDIPLEN    1 -0.000000
@ B operator, symmetry, frequency:   XDIPLEN    1  0.000000

@ Value of linear response -<<A;B>>(omega):       3.447173358789

@ Singlet linear response function in a.u.

@ A operator, symmetry, frequency:   YDIPLEN    1 -0.000000
@ B operator, symmetry, frequency:   XDIPLEN    1  0.000000

@ Value of linear response -<<A;B>>(omega):       0.588404078577

@ Singlet linear response function in a.u.

@ A operator, symmetry, frequency:   ZDIPLEN    1 -0.000000
@ B operator, symmetry, frequency:   XDIPLEN    1  0.000000

@ Value of linear response -<<A;B>>(omega):       0.583060438595

@ Singlet linear response function in a.u.

@ A operator, symmetry, frequency:   XDIPLEN    1 -0.000000
@ B operator, symmetry, frequency:   YDIPLEN    1  0.000000

@ Value of linear response -<<A;B>>(omega):       0.588448739721

@ Singlet linear response function in a.u.

@ A operator, symmetry, frequency:   YDIPLEN    1 -0.000000
@ B operator, symmetry, frequency:   YDIPLEN    1  0.000000

@ Value of linear response -<<A;B>>(omega):       6.117801022333

@ Singlet linear response function in a.u.

@ A operator, symmetry, frequency:   ZDIPLEN    1 -0.000000
@ B operator, symmetry, frequency:   YDIPLEN    1  0.000000

@ Value of linear response -<<A;B>>(omega):      -1.064284172640

@ Singlet linear response function in a.u.

@ A operator, symmetry, frequency:   XDIPLEN    1 -0.000000
@ B operator, symmetry, frequency:   ZDIPLEN    1  0.000000

@ Value of linear response -<<A;B>>(omega):       0.583187747072

@ Singlet linear response function in a.u.

@ A operator, symmetry, frequency:   YDIPLEN    1 -0.000000
@ B operator, symmetry, frequency:   ZDIPLEN    1  0.000000

@ Value of linear response -<<A;B>>(omega):      -1.064353314504

@ Singlet linear response function in a.u.

@ A operator, symmetry, frequency:   ZDIPLEN    1 -0.000000
@ B operator, symmetry, frequency:   ZDIPLEN    1  0.000000

@ Value of linear response -<<A;B>>(omega):       5.505800607649


  Results from quadratic response calculation
 --------------------------------------------

@ B-freq = 0.000000  C-freq = 0.000000     beta(X;X,X) =     -3.43683500
@ B-freq = 0.000000  C-freq = 0.000000     beta(Y;X,X) =     -1.92906738
@ B-freq = 0.000000  C-freq = 0.000000     beta(Z;X,X) =     -2.00135957
@ B-freq = 0.000000  C-freq = 0.000000     beta(X;Y,X) = beta(Y,X,X)
@ B-freq = 0.000000  C-freq = 0.000000     beta(X;Y,X) =     -1.92906732
@ B-freq = 0.000000  C-freq = 0.000000     beta(Y;Y,X) =     -6.05754522
@ B-freq = 0.000000  C-freq = 0.000000     beta(Z;Y,X) =      2.44206667
@ B-freq = 0.000000  C-freq = 0.000000     beta(X;Z,X) = beta(Z,X,X)
@ B-freq = 0.000000  C-freq = 0.000000     beta(Y;Z,X) = beta(Z,Y,X)
@ B-freq = 0.000000  C-freq = 0.000000     beta(X;Z,X) =     -2.00135947
@ B-freq = 0.000000  C-freq = 0.000000     beta(Y;Z,X) =      2.44206661
@ B-freq = 0.000000  C-freq = 0.000000     beta(Z;Z,X) =     -3.91360885
@ B-freq = 0.000000  C-freq = 0.000000     beta(X;X,Y) = beta(Y,X,X)
@ B-freq = 0.000000  C-freq = 0.000000     beta(Y;X,Y) = beta(Y,Y,X)
@ B-freq = 0.000000  C-freq = 0.000000     beta(Z;X,Y) = beta(Z,Y,X)
@ B-freq = 0.000000  C-freq = 0.000000     beta(X;Y,Y) = beta(Y,Y,X)
@ B-freq = 0.000000  C-freq = 0.000000     beta(X;Y,Y) =     -6.05754472
@ B-freq = 0.000000  C-freq = 0.000000     beta(Y;Y,Y) =    -19.80768854
@ B-freq = 0.000000  C-freq = 0.000000     beta(Z;Y,Y) =     -1.32137226
@ B-freq = 0.000000  C-freq = 0.000000     beta(X;Z,Y) = beta(Z,Y,X)
@ B-freq = 0.000000  C-freq = 0.000000     beta(Y;Z,Y) = beta(Z,Y,Y)
@ B-freq = 0.000000  C-freq = 0.000000     beta(X;Z,Y) =      2.44206618
@ B-freq = 0.000000  C-freq = 0.000000     beta(Y;Z,Y) =     -1.32137365
@ B-freq = 0.000000  C-freq = 0.000000     beta(Z;Z,Y) =      4.95903550
@ B-freq = 0.000000  C-freq = 0.000000     beta(X;X,Z) = beta(Z,X,X)
@ B-freq = 0.000000  C-freq = 0.000000     beta(Y;X,Z) = beta(Z,Y,X)
@ B-freq = 0.000000  C-freq = 0.000000     beta(Z;X,Z) = beta(Z,Z,X)
@ B-freq = 0.000000  C-freq = 0.000000     beta(X;Y,Z) = beta(Z,Y,X)
@ B-freq = 0.000000  C-freq = 0.000000     beta(Y;Y,Z) = beta(Z,Y,Y)
@ B-freq = 0.000000  C-freq = 0.000000     beta(Z;Y,Z) = beta(Z,Z,Y)
@ B-freq = 0.000000  C-freq = 0.000000     beta(X;Z,Z) = beta(Z,Z,X)
@ B-freq = 0.000000  C-freq = 0.000000     beta(Y;Z,Z) = beta(Z,Z,Y)
@ B-freq = 0.000000  C-freq = 0.000000     beta(X;Z,Z) =     -3.91360854
@ B-freq = 0.000000  C-freq = 0.000000     beta(Y;Z,Z) =      4.95903659
@ B-freq = 0.000000  C-freq = 0.000000     beta(Z;Z,Z) =    -18.09102176

 >>>> Total CPU  time used in RESPONSE:   0.52 seconds
 >>>> Total wall time used in RESPONSE:   0.71 seconds


                   .-------------------------------------------.
                   | End of Dynamic Property Section (RESPONS) |
                   `-------------------------------------------'

 >>>> Total CPU  time used in DALTON:   0.78 seconds
 >>>> Total wall time used in DALTON:   1.08 seconds

 
     Date and time (Linux)  : Mon Jun 30 16:18:42 2014
     Host name              : supermario                              
