

     ************************************************************************
     *************** Dalton - An Electronic Structure Program ***************
     ************************************************************************

    This is output from DALTON 2013.1
   ----------------------------------------------------------------------------
    NOTE:
     
    Dalton is an experimental code for the evaluation of molecular
    properties using (MC)SCF, DFT, CI, and CC wave functions.
    The authors accept no responsibility for the performance of
    the code or for the correctness of the results.
     
    The code (in whole or part) is provided under a licence and
    is not to be reproduced for further distribution without
    the written permission of the authors or their representatives.
     
    See the home page "http://daltonprogram.org" for further information.
     
    If results obtained with this code are published,
    the appropriate citations would be both of:
     
       K. Aidas, C. Angeli, K. L. Bak, V. Bakken, R. Bast,
       L. Boman, O. Christiansen, R. Cimiraglia, S. Coriani,
       P. Dahle, E. K. Dalskov, U. Ekstroem, T. Enevoldsen,
       J. J. Eriksen, P. Ettenhuber, B. Fernandez, L. Ferrighi,
       H. Fliegl, L. Frediani, K. Hald, A. Halkier, C. Haettig,
       H. Heiberg, T. Helgaker, A. C. Hennum, H. Hettema,
       E. Hjertenaes, S. Hoest, I.-M. Hoeyvik, M. F. Iozzi,
       B. Jansik, H. J. Aa. Jensen, D. Jonsson, P. Joergensen,
       J. Kauczor, S. Kirpekar, T. Kjaergaard, W. Klopper,
       S. Knecht, R. Kobayashi, H. Koch, J. Kongsted, A. Krapp,
       K. Kristensen, A. Ligabue, O. B. Lutnaes, J. I. Melo,
       K. V. Mikkelsen, R. H. Myhre, C. Neiss, C. B. Nielsen,
       P. Norman, J. Olsen, J. M. H. Olsen, A. Osted,
       M. J. Packer, F. Pawlowski, T. B. Pedersen, P. F. Provasi,
       S. Reine, Z. Rinkevicius, T. A. Ruden, K. Ruud, V. Rybkin,
       P. Salek, C. C. M. Samson, A. Sanchez de Meras, T. Saue,
       S. P. A. Sauer, B. Schimmelpfennig, K. Sneskov,
       A. H. Steindal, K. O. Sylvester-Hvid, P. R. Taylor,
       A. M. Teale, E. I. Tellgren, D. P. Tew, A. J. Thorvaldsen,
       L. Thoegersen, O. Vahtras, M. A. Watson, D. J. D. Wilson,
       M. Ziolkowski and H. Aagren,
       "The Dalton quantum chemistry program system",
       WIREs Comput. Mol. Sci. 2013. (doi: 10.1002/wcms.1172)
    
    and
    
       Dalton, a Molecular Electronic Structure Program,
       Release DALTON2013.1 (2013), see http://daltonprogram.org
   ----------------------------------------------------------------------------

    Authors in alphabetical order (major contribution(s) in parenthesis):

  Kestutis Aidas,           Vilnius University,           Lithuania   (QM/MM)
  Celestino Angeli,         University of Ferrara,        Italy       (NEVPT2)
  Keld L. Bak,              UNI-C,                        Denmark     (AOSOPPA, non-adiabatic coupling, magnetic properties)
  Vebjoern Bakken,          University of Oslo,           Norway      (DALTON; geometry optimizer, symmetry detection)
  Radovan Bast,             KTH Stockholm,                Sweden      (DALTON installation and execution frameworks)
  Linus Boman,              NTNU,                         Norway      (Cholesky decomposition and subsystems)
  Ove Christiansen,         Aarhus University,            Denmark     (CC module)
  Renzo Cimiraglia,         University of Ferrara,        Italy       (NEVPT2)
  Sonia Coriani,            University of Trieste,        Italy       (CC module, MCD in RESPONS)
  Paal Dahle,               University of Oslo,           Norway      (Parallelization)
  Erik K. Dalskov,          UNI-C,                        Denmark     (SOPPA)
  Thomas Enevoldsen,        Univ. of Southern Denmark,    Denmark     (SOPPA)
  Janus J. Eriksen,         Aarhus University,            Denmark     (PE-MP2/SOPPA, TDA)
  Berta Fernandez,          U. of Santiago de Compostela, Spain       (doublet spin, ESR in RESPONS)
  Lara Ferrighi,            Aarhus University,            Denmark     (PCM Cubic response)
  Heike Fliegl,             University of Oslo,           Norway      (CCSD(R12))
  Luca Frediani,            UiT The Arctic U. of Norway,  Norway      (PCM)
  Bin Gao,                  UiT The Arctic U. of Norway,  Norway      (Gen1Int library)
  Christof Haettig,         Ruhr-University Bochum,       Germany     (CC module)
  Kasper Hald,              Aarhus University,            Denmark     (CC module)
  Asger Halkier,            Aarhus University,            Denmark     (CC module)
  Hanne Heiberg,            University of Oslo,           Norway      (geometry analysis, selected one-electron integrals)
  Trygve Helgaker,          University of Oslo,           Norway      (DALTON; ABACUS, ERI, DFT modules, London, and much more)
  Alf Christian Hennum,     University of Oslo,           Norway      (Parity violation)
  Hinne Hettema,            University of Auckland,       New Zealand (quadratic response in RESPONS; SIRIUS supersymmetry)
  Eirik Hjertenaes,         NTNU,                         Norway      (Cholesky decomposition)
  Maria Francesca Iozzi,    University of Oslo,           Norway      (RPA)
  Brano Jansik              Technical Univ. of Ostrava    Czech Rep.  (DFT cubic response)
  Hans Joergen Aa. Jensen,  Univ. of Southern Denmark,    Denmark     (DALTON; SIRIUS, RESPONS, ABACUS modules, London, and much more)
  Dan Jonsson,              UiT The Arctic U. of Norway,  Norway      (cubic response in RESPONS module)
  Poul Joergensen,          Aarhus University,            Denmark     (RESPONS, ABACUS, and CC modules)
  Joanna Kauczor,           Linkoeping University,        Sweden      (Complex polarization propagator (CPP) module)
  Sheela Kirpekar,          Univ. of Southern Denmark,    Denmark     (Mass-velocity & Darwin integrals)
  Wim Klopper,              KIT Karlsruhe,                Germany     (R12 code in CC, SIRIUS, and ABACUS modules)
  Stefan Knecht,            ETH Zurich,                   Switzerland (Parallel CI and MCSCF)
  Rika Kobayashi,           Australian National Univ.,    Australia   (DIIS in CC, London in MCSCF)
  Henrik Koch,              NTNU,                         Norway      (CC module, Cholesky decomposition)
  Jacob Kongsted,           Univ. of Southern Denmark,    Denmark     (Polarizable embedding, QM/MM)
  Andrea Ligabue,           University of Modena,         Italy       (CTOCD, AOSOPPA)
  Ola B. Lutnaes,           University of Oslo,           Norway      (DFT Hessian)
  Juan I. Melo,             University of Buenos Aires,   Argentina   (LRESC, Relativistic Effects on NMR Shieldings)
  Kurt V. Mikkelsen,        University of Copenhagen,     Denmark     (MC-SCRF and QM/MM)
  Rolf H. Myhre,            NTNU,                         Norway      (Cholesky, subsystems and ECC2)
  Christian Neiss,          Univ. Erlangen-Nuernberg,     Germany     (CCSD(R12))
  Christian B. Nielsen,     University of Copenhagen,     Denmark     (QM/MM)
  Patrick Norman,           Linkoeping University,        Sweden      (Cubic response and complex response in RESPONS)
  Jeppe Olsen,              Aarhus University,            Denmark     (SIRIUS CI/density modules)
  Jogvan Magnus H. Olsen,   Univ. of Southern Denmark,    Denmark     (Polarizable embedding, PE library, QM/MM)
  Anders Osted,             Copenhagen University,        Denmark     (QM/MM)
  Martin J. Packer,         University of Sheffield,      UK          (SOPPA)
  Filip Pawlowski,          Kazimierz Wielki University,  Poland      (CC3)
  Thomas B. Pedersen,       University of Oslo,           Norway      (Cholesky decomposition)
  Patricio F. Provasi,      University of Northeastern,   Argentina   (Analysis of coupling constants in localized orbitals)
  Zilvinas Rinkevicius,     KTH Stockholm,                Sweden      (open-shell DFT, ESR)
  Elias Rudberg,            KTH Stockholm,                Sweden      (DFT grid and basis info)
  Torgeir A. Ruden,         University of Oslo,           Norway      (Numerical derivatives in ABACUS)
  Kenneth Ruud,             UiT The Arctic U. of Norway,  Norway      (DALTON; ABACUS magnetic properties and  much more)
  Pawel Salek,              KTH Stockholm,                Sweden      (DALTON; DFT code)
  Claire C. M. Samson       University of Karlsruhe       Germany     (Boys localization, r12 integrals in ERI)
  Alfredo Sanchez de Meras, University of Valencia,       Spain       (CC module, Cholesky decomposition)
  Trond Saue,               Paul Sabatier University,     France      (direct Fock matrix construction)
  Stephan P. A. Sauer,      University of Copenhagen,     Denmark     (SOPPA(CCSD), SOPPA prop., AOSOPPA, vibrational g-factors)
  Bernd Schimmelpfennig,    Forschungszentrum Karlsruhe,  Germany     (AMFI module)
  Kristian Sneskov,         Aarhus University,            Denmark     (QM/MM, PE-CC)
  Arnfinn H. Steindal,      UiT The Arctic U. of Norway,  Norway      (parallel QM/MM)
  K. O. Sylvester-Hvid,     University of Copenhagen,     Denmark     (MC-SCRF)
  Peter R. Taylor,          VLSCI/Univ. of Melbourne,     Australia   (Symmetry handling ABACUS, integral transformation)
  Andrew M. Teale,          University of Nottingham,     England     (DFT-AC, DFT-D)
  David P. Tew,             University of Bristol,        England     (CCSD(R12))
  Olav Vahtras,             KTH Stockholm,                Sweden      (triplet response, spin-orbit, ESR, TDDFT, open-shell DFT)
  David J. Wilson,          La Trobe University,          Australia   (DFT Hessian and DFT magnetizabilities)
  Hans Agren,               KTH Stockholm,                Sweden      (SIRIUS module, RESPONS, MC-SCRF solvation model)
 --------------------------------------------------------------------------------

     Date and time (Linux)  : Fri Jul  4 14:04:35 2014
     Host name              : supermario                              

 * Work memory size             :    64000000 =  488.28 megabytes.

 * Directories for basis set searches:
   1) /home/ignat/projects/beta_water/calcs
   2) /home/ignat/repos/beta/build_gnu/basis


Compilation information
-----------------------

 Who compiled             | ignat
 Host                     | supermario
 System                   | Linux-3.13.6-1-ARCH
 CMake generator          | Unix Makefiles
 Processor                | x86_64
 64-bit integers          | OFF
 MPI                      | ON
 Fortran compiler         | /usr/bin/mpif90
 Fortran compiler version | GNU Fortran (GCC) 4.8.2 20140206 (prerelease)
 C compiler               | /usr/bin/mpicc
 C compiler version       | gcc (GCC) 4.8.2 20140206 (prerelease)
 C++ compiler             | /usr/bin/mpicxx
 C++ compiler version     | unknown
 BLAS                     | /lib64/libblas.so
 LAPACK                   | /lib64/liblapack.so
 Static linking           | OFF
 Last Git revision        | 40009094950fd78a6f3a8f17a3241f141fce048f
 Git branch               | beta_ignat
 Configuration time       | 2014-05-06 17:35:07.255579

 * Parallel with MPI: Using    4 CPUs.


   Content of the .dal input file
 ----------------------------------

**DALTON INPUT                                    
.RUN RESPONSE                                     
.DIRECT                                           
.PARALLELL                                        
**WAVE FUNCTION                                   
.HF                                               
**RESPONSE                                        
.PROPAV                                           
XDIPLEN                                           
.PROPAV                                           
YDIPLEN                                           
.PROPAV                                           
ZDIPLEN                                           
*QUADRATIC                                        
.DIPLEN                                           
**END OF DALTON INPUT                             


   Content of the .mol file
 ----------------------------

ATOMBASIS                                                                      
                                                                               
                                                                               
Atomtypes=2 Charge=0 Nosymm Angstrom                                           
Charge=1.0 Atoms=4 Basis=cc-pVDZ                                               
H    -0.757496  0.00    0.586516                                               
H    0.757496   0.00    0.586516                                               
H    -0.757496  0.00    4.01075842424                                          
H    0.757496   0.00    4.01075842424                                          
Charge=8.0 Atoms=2 Basis=cc-pVDZ                                               
O    0.00    	0.00    0.00                                                     
O    0.00    	0.00    3.42424242424                                            


       *******************************************************************
       *********** Output from DALTON general input processing ***********
       *******************************************************************

 --------------------------------------------------------------------------------
   Overall default print level:    0
   Print level for DALTON.STAT:    1

    Parallel calculation using MPI
    AO-direct calculation (in sections where implemented)
    HERMIT 1- and 2-electron integral sections will be executed
    "Old" integral transformation used (limited to max 255 basis functions)
    Wave function sections will be executed (SIRIUS module)
    Dynamic molecular response properties section will be executed (RESPONSE module)
 --------------------------------------------------------------------------------


   ****************************************************************************
   *************** Output of molecule and basis set information ***************
   ****************************************************************************


    The two title cards from your ".mol" input:
    ------------------------------------------------------------------------
 1:                                                                         
 2:                                                                         
    ------------------------------------------------------------------------

  Coordinates are entered in Angstrom and converted to atomic units.
          - Conversion factor : 1 bohr = 0.52917721 A

  Atomic type no.    1
  --------------------
  Nuclear charge:   1.00000
  Number of symmetry independent centers:    4
  Number of basis sets to read;    2
  The basis set is "cc-pVDZ" from the basis set library.
  Basis set file used for this atomic type with Z =   1 :
     "/home/ignat/repos/beta/build_gnu/basis/cc-pVDZ"

  Atomic type no.    2
  --------------------
  Nuclear charge:   8.00000
  Number of symmetry independent centers:    2
  Number of basis sets to read;    2
  The basis set is "cc-pVDZ" from the basis set library.
  Basis set file used for this atomic type with Z =   8 :
     "/home/ignat/repos/beta/build_gnu/basis/cc-pVDZ"


                         SYMGRP: Point group information
                         -------------------------------

Point group: C1 


                                 Isotopic Masses
                                 ---------------

                           H           1.007825
                           H           1.007825
                           H           1.007825
                           H           1.007825
                           O          15.994915
                           O          15.994915

                       Total mass:    36.021130 amu
                       Natural abundance:  99.461 %

 Center-of-mass coordinates (a.u.):    0.000000    0.000000    3.359482


  Atoms and basis sets
  --------------------

  Number of atom types :    2
  Total number of atoms:    6

  label    atoms   charge   prim   cont     basis
  ----------------------------------------------------------------------
  H           4    1.0000     7     5      [4s1p|2s1p]                                        
  O           2    8.0000    26    14      [9s4p1d|3s2p1d]                                    
  ----------------------------------------------------------------------
  total:      6   20.0000    80    48
  ----------------------------------------------------------------------
  Spherical harmonic basis used.

  Threshold for neglecting AO integrals:  1.00D-12


  Cartesian Coordinates (a.u.)
  ----------------------------

  Total number of coordinates:   18
  H       :     1  x  -1.4314599808    2  y   0.0000000000    3  z   1.1083546079
  H       :     4  x   1.4314599808    5  y   0.0000000000    6  z   1.1083546079
  H       :     7  x  -1.4314599808    8  y   0.0000000000    9  z   7.5792349753
  H       :    10  x   1.4314599808   11  y   0.0000000000   12  z   7.5792349753
  O       :    13  x   0.0000000000   14  y   0.0000000000   15  z   0.0000000000
  O       :    16  x   0.0000000000   17  y   0.0000000000   18  z   6.4708803674


   Interatomic separations (in Angstrom):
   --------------------------------------

            H           H           H           H           O           O     
            ------      ------      ------      ------      ------      ------
 H     :    0.000000
 H     :    1.514992    0.000000
 H     :    3.424242    3.744414    0.000000
 H     :    3.744414    3.424242    1.514992    0.000000
 O     :    0.958019    0.958019    4.081664    4.081664    0.000000
 O     :    2.937089    2.937089    0.958019    0.958019    3.424242    0.000000


  Max    interatomic separation is    4.0817 Angstrom (    7.7132 Bohr)
  between atoms    5 and    3, "O     " and "H     ".

  Min HX interatomic separation is    0.9580 Angstrom (    1.8104 Bohr)

  Min YX interatomic separation is    3.4242 Angstrom (    6.4709 Bohr)


  Bond distances (Angstrom):
  --------------------------

                  atom 1     atom 2       distance
                  ------     ------       --------
  bond distance:  O          H            0.958019
  bond distance:  O          H            0.958019
  bond distance:  O          H            0.958019
  bond distance:  O          H            0.958019


  Bond angles (degrees):
  ----------------------

                  atom 1     atom 2     atom 3         angle
                  ------     ------     ------         -----
  bond angle:     H          O          H            104.500
  bond angle:     H          O          H            104.500




 Principal moments of inertia (u*A**2) and principal axes
 --------------------------------------------------------

   IA       2.313161          0.000000    0.000000    1.000000
   IB     106.822436          1.000000    0.000000    0.000000
   IC     109.135597          0.000000    1.000000    0.000000


 Rotational constants
 --------------------

 The molecule is planar.

               A                   B                   C

         218479.8509           4731.0193           4630.7440 MHz
            7.287703            0.157810            0.154465 cm-1


@  Nuclear repulsion energy :   33.813571965987 Hartree


                     .---------------------------------------.
                     | Starting in Integral Section (HERMIT) |
                     `---------------------------------------'



    *************************************************************************
    ****************** Output from HERMIT input processing ******************
    *************************************************************************



     ************************************************************************
     ************************** Output from HERINT **************************
     ************************************************************************

 >>>> Total CPU  time used in HERMIT:   0.08 seconds
 >>>> Total wall time used in HERMIT:   0.08 seconds


                        .----------------------------------.
                        | End of Integral Section (HERMIT) |
                        `----------------------------------'



                   .--------------------------------------------.
                   | Starting in Wave Function Section (SIRIUS) |
                   `--------------------------------------------'


 *** Output from Huckel module :

     Using EWMO model:          T
     Using EHT  model:          F
     Number of Huckel orbitals each symmetry:   14

 EWMO - Energy Weighted Maximum Overlap - is a Huckel type method,
        which normally is better than Extended Huckel Theory.
 Reference: Linderberg and Ohrn, Propagators in Quantum Chemistry (Wiley, 1973)

 Huckel EWMO eigenvalues for symmetry :  1
          -20.685146     -20.684768      -1.633025      -1.591458      -0.788673
           -0.767862      -0.713580      -0.662983      -0.620366      -0.612034
           -0.243703      -0.219531      -0.169333      -0.167337

 **********************************************************************
 *SIRIUS* a direct, restricted step, second order MCSCF program       *
 **********************************************************************

 
     Date and time (Linux)  : Fri Jul  4 14:04:35 2014
     Host name              : supermario                              

 Title lines from ".mol" input file:
                                                                             
                                                                             

 Print level on unit LUPRI =   2 is   0
 Print level on unit LUW4  =   2 is   5

@    Restricted, closed shell Hartree-Fock calculation.

@    Time-dependent Hartree-Fock calculation (random phase approximation).
 Fock matrices are calculated directly and in parallel without use of integrals on disk.

 Initial molecular orbitals are obtained according to
 ".MOSTART EWMO  " input option

     Wave function specification
     ============================
@    For the wave function of type :      >>> HF <<<
@    Number of closed shell electrons          20
@    Number of electrons in active shells       0
@    Total charge of the molecule               0

@    Spin multiplicity and 2 M_S                1         0
     Total number of symmetries                 1
@    Reference state symmetry                   1

     Orbital specifications
     ======================
     Abelian symmetry species          All |    1
                                       --- |  ---
@    Occupied SCF orbitals              10 |   10
     Secondary orbitals                 38 |   38
     Total number of orbitals           48 |   48
     Number of basis functions          48 |   48

     Optimization information
     ========================
@    Number of configurations                 1
@    Number of orbital rotations            380
     ------------------------------------------
@    Total number of variables              381

     Maximum number of Fock   iterations      0
     Maximum number of DIIS   iterations     60
     Maximum number of QC-SCF iterations     60
     Threshold for SCF convergence     1.00D-05


 >>>>> DIIS optimization of Hartree-Fock <<<<<

 C1-DIIS algorithm; max error vectors =    5

 Iter      Total energy        Error norm    Delta(E)  DIIS dim.
 -----------------------------------------------------------------------------
   1  Screening settings (-IFTHRS, DIFDEN)   -7    T
@  1    -151.706349803        2.30600D+00   -1.52D+02    1
      Virial theorem: -V/T =      1.999833
@      MULPOP H       0.27; H       0.27; H       0.27; H       0.27; O      -0.56; O      -0.52; 
 -----------------------------------------------------------------------------
   2  Screening settings (-IFTHRS, DIFDEN)   -7    T
@  2    -152.046252409        4.39461D-01   -3.40D-01    2
      Virial theorem: -V/T =      2.001392
@      MULPOP H       0.14; H       0.14; H       0.14; H       0.14; O      -0.28; O      -0.27; 
 -----------------------------------------------------------------------------
   3  Screening settings (-IFTHRS, DIFDEN)   -7    T
@  3    -152.057125630        9.72472D-02   -1.09D-02    3
      Virial theorem: -V/T =      2.000418
@      MULPOP H       0.15; H       0.15; H       0.15; H       0.15; O      -0.31; O      -0.30; 
 -----------------------------------------------------------------------------
   4  Screening settings (-IFTHRS, DIFDEN)  -11    F
@  4    -152.058125250        2.33279D-02   -1.00D-03    4
      Virial theorem: -V/T =      2.000837
@      MULPOP H       0.15; H       0.15; H       0.16; H       0.16; O      -0.31; O      -0.31; 
 -----------------------------------------------------------------------------
   5  Screening settings (-IFTHRS, DIFDEN)  -11    T
@  5    -152.058168316        1.01725D-02   -4.31D-05    5
      Virial theorem: -V/T =      2.000516
@      MULPOP H       0.16; H       0.16; H       0.16; H       0.16; O      -0.32; O      -0.31; 
 -----------------------------------------------------------------------------
   6  Screening settings (-IFTHRS, DIFDEN)  -11    T
@  6    -152.058177195        2.00374D-03   -8.88D-06    5
      Virial theorem: -V/T =      2.000633
@      MULPOP H       0.16; H       0.16; H       0.16; H       0.16; O      -0.32; O      -0.31; 
 -----------------------------------------------------------------------------
   7  Screening settings (-IFTHRS, DIFDEN)  -11    T
@  7    -152.058177907        4.48438D-04   -7.12D-07    5
      Virial theorem: -V/T =      2.000644
@      MULPOP H       0.16; H       0.16; H       0.16; H       0.16; O      -0.32; O      -0.31; 
 -----------------------------------------------------------------------------
   8  Screening settings (-IFTHRS, DIFDEN)  -11    T
@  8    -152.058177936        4.73754D-05   -2.96D-08    5
      Virial theorem: -V/T =      2.000648
@      MULPOP H       0.16; H       0.16; H       0.16; H       0.16; O      -0.32; O      -0.31; 
 -----------------------------------------------------------------------------
   9  Screening settings (-IFTHRS, DIFDEN)  -11    T
@  9    -152.058177937        1.38342D-05   -2.64D-10    5
      Virial theorem: -V/T =      2.000648
@      MULPOP H       0.16; H       0.16; H       0.16; H       0.16; O      -0.32; O      -0.31; 
 -----------------------------------------------------------------------------
  10  Screening settings (-IFTHRS, DIFDEN)  -11    T
@ 10    -152.058177937        6.11606D-06   -3.20D-11    5

@ *** DIIS converged in  10 iterations !
@     Converged SCF energy, gradient:   -152.058177936594    6.12D-06
    - total time used in SIRFCK :              0.00 seconds


 *** SCF orbital energy analysis ***

 Only the five lowest virtual orbital energies printed in each symmetry.

 Number of electrons :   20
 Orbital occupations :   10

 Sym       Hartree-Fock orbital energies

  1    -20.56941786   -20.52859846    -1.35461566    -1.31428646    -0.71720780
        -0.67749737    -0.58812637    -0.54418599    -0.51172237    -0.47218429
         0.16149871     0.23453444     0.23917432     0.28060591     0.77139900

    E(LUMO) :     0.16149871 au (symmetry 1)
  - E(HOMO) :    -0.47218429 au (symmetry 1)
  ------------------------------------------
    gap     :     0.63368300 au

 >>> Writing SIRIFC interface file <<<

 >>>> CPU and wall time for SCF :       1.960       1.960


                       .-----------------------------------.
                       | >>> Final results from SIRIUS <<< |
                       `-----------------------------------'


@    Spin multiplicity:           1
@    Spatial symmetry:            1
@    Total charge of molecule:    0

@    Final HF energy:            -152.058177936594                 
@    Nuclear repulsion:            33.813571965987
@    Electronic energy:          -185.871749902582

@    Final gradient norm:           0.000006116056

 
     Date and time (Linux)  : Fri Jul  4 14:04:37 2014
     Host name              : supermario                              

 (Only coefficients >0.0100 are printed.)

 Molecular orbitals for symmetry species  1
 ------------------------------------------

    Orbital         6        7        8        9       10       11       12
   1 H   :1s     0.5537  -0.0577   0.3470   0.0000  -0.0000   0.0258  -0.1231
   2 H   :1s    -0.1880  -0.0010  -0.1465  -0.0000  -0.0000   0.2937  -0.7105
   3 H   :2px    0.0227  -0.0079   0.0295   0.0000  -0.0000   0.0064  -0.0115
   4 H   :2py    0.0000  -0.0000  -0.0000   0.0011  -0.0304  -0.0000  -0.0000
   5 H   :2pz   -0.0334  -0.0028   0.0063  -0.0000   0.0000  -0.0009   0.0178
   6 H   :1s    -0.5537  -0.0577   0.3470  -0.0000  -0.0000   0.0258  -0.1231
   7 H   :1s     0.1880  -0.0010  -0.1465   0.0000   0.0000   0.2937  -0.7105
   8 H   :2px    0.0227   0.0079  -0.0295   0.0000  -0.0000  -0.0064   0.0115
   9 H   :2py    0.0000  -0.0000  -0.0000   0.0011  -0.0304  -0.0000  -0.0000
  10 H   :2pz    0.0334  -0.0028   0.0063   0.0000  -0.0000  -0.0009   0.0178
  11 H   :1s    -0.0190   0.3434   0.0736   0.0000   0.0000   0.1024   0.0223
  12 H   :1s     0.0060  -0.1346  -0.0214   0.0000  -0.0000   0.6820   0.3808
  13 H   :2px   -0.0008   0.0311   0.0089   0.0000   0.0000   0.0169  -0.0008
  14 H   :2py    0.0000   0.0000   0.0000   0.0307   0.0011   0.0000  -0.0000
  15 H   :2pz    0.0011   0.0065   0.0016  -0.0000  -0.0000  -0.0130  -0.0102
  16 H   :1s     0.0190   0.3434   0.0736  -0.0000  -0.0000   0.1024   0.0223
  17 H   :1s    -0.0060  -0.1346  -0.0214   0.0000   0.0000   0.6820   0.3808
  18 H   :2px   -0.0008  -0.0311  -0.0089   0.0000  -0.0000  -0.0169   0.0008
  19 H   :2py    0.0000   0.0000   0.0000   0.0307   0.0011   0.0000  -0.0000
  20 H   :2pz   -0.0011   0.0065   0.0016   0.0000   0.0000  -0.0130  -0.0102
  21 O   :1s    -0.0000  -0.0031   0.0016  -0.0000   0.0000   0.0198  -0.0450
  22 O   :1s     0.0000   0.0552  -0.2843  -0.0000  -0.0000  -0.0531   0.1568
  23 O   :1s     0.0000   0.0616  -0.1653   0.0000  -0.0000  -0.3363   0.8456
  24 O   :2px   -0.7138  -0.0000  -0.0000  -0.0000   0.0000   0.0000  -0.0000
  25 O   :2py   -0.0000  -0.0000   0.0000   0.0192  -0.9180  -0.0000   0.0000
  26 O   :2pz   -0.0000  -0.1333   0.7866   0.0000   0.0000  -0.1283   0.2385
  27 O   :2px    0.1042  -0.0000   0.0000   0.0000  -0.0000   0.0000  -0.0000
  28 O   :2py   -0.0000  -0.0000   0.0000   0.0026  -0.0744  -0.0000   0.0000
  29 O   :2pz    0.0000   0.0007   0.0017   0.0000   0.0000  -0.0713   0.2061
  31 O   :3d1-  -0.0000  -0.0000   0.0000   0.0004  -0.0176  -0.0000   0.0000
  32 O   :3d0    0.0000  -0.0027   0.0173   0.0000   0.0000  -0.0029   0.0064
  33 O   :3d1+  -0.0265  -0.0000   0.0000   0.0000  -0.0000   0.0000  -0.0000
  35 O   :1s    -0.0000   0.0026   0.0009  -0.0000   0.0000   0.0438   0.0280
  36 O   :1s     0.0000  -0.2810  -0.0624  -0.0000  -0.0000  -0.1640   0.0105
  37 O   :1s    -0.0000  -0.1773  -0.0480  -0.0000  -0.0000  -0.8152  -0.4175
  38 O   :2px    0.0237  -0.0000  -0.0000  -0.0000   0.0000   0.0000   0.0000
  39 O   :2py   -0.0000  -0.0000  -0.0000   0.9201   0.0224  -0.0000   0.0000
  40 O   :2pz   -0.0000   0.7788   0.1554   0.0000   0.0000  -0.2072  -0.2302
  42 O   :2py   -0.0000  -0.0000  -0.0000   0.0716  -0.0003  -0.0000   0.0000
  43 O   :2pz   -0.0000   0.0009  -0.0149  -0.0000  -0.0000  -0.1847  -0.0831
  45 O   :3d1-  -0.0000  -0.0000  -0.0000   0.0177   0.0004  -0.0000   0.0000
  46 O   :3d0   -0.0000   0.0167   0.0032  -0.0000  -0.0000  -0.0043  -0.0088



 >>>> Total CPU  time used in SIRIUS :      1.99 seconds
 >>>> Total wall time used in SIRIUS :      1.99 seconds

 
     Date and time (Linux)  : Fri Jul  4 14:04:37 2014
     Host name              : supermario                              


                     .---------------------------------------.
                     | End of Wave Function Section (SIRIUS) |
                     `---------------------------------------'



                 .------------------------------------------------.
                 | Starting in Dynamic Property Section (RESPONS) |
                 `------------------------------------------------'


 ------------------------------------------------------------------------------
  RESPONSE  -  an MCSCF, MC-srDFT, DFT, and SOPPA response property program
 ------------------------------------------------------------------------------


 <<<<<<<<<< OUTPUT FROM RESPONSE INPUT PROCESSING >>>>>>>>>>




 CHANGES OF DEFAULTS FOR RSPINP:
 -------------------------------


 AO-direct Fock matrix calculations.

 Default : Using Fock type decoupling of the two-electron density matrix :
    Add DV*(FC+FV) instead of DV*FC to E[2] approximate orbital diagonal



 Quadratic Response calculation
 ------------------------------

 First hyperpolarizability calculation : HYPCAL= T

 Spin of operator A , ISPINA=    0
 Spin of operator B , ISPINB=    0
 Spin of operator C , ISPINC=    0

  1 B-frequencies  0.000000D+00
  1 C-frequencies  0.000000D+00

 Print level                                    : IPRHYP =   2
 Maximum number of iterations in lin.rsp. solver: MAXITL =  60
 Threshold for convergence of linear resp. eq.s : THCLR  = 1.000D-03
 Maximum iterations in optimal orbital algorithm: MAXITO =   5
 Direct one-index transformation                : DIROIT= T

    3 A OPERATORS OF SYMMETRY NO:    1 AND LABELS:

          XDIPLEN 
          YDIPLEN 
          ZDIPLEN 

    3 B OPERATORS OF SYMMETRY NO:    1 AND LABELS:

          XDIPLEN 
          YDIPLEN 
          ZDIPLEN 

    3 C OPERATORS OF SYMMETRY NO:    1 AND LABELS:

          XDIPLEN 
          YDIPLEN 
          ZDIPLEN 


   SCF energy         :     -152.058177936594348
 -- inactive part     :     -185.871749902581712
 -- nuclear repulsion :       33.813571965987379


                     ***************************************
                     *** RHF response calculation (TDHF) ***
                     ***************************************



             Calculation of electronic one-electron expectation values
            ----------------------------------------------------------

 (Note that to get e.g. a dipole moment you must multiply the
  electronic number by -1 and add the nuclear contribution.)

 *** Individual non-zero orbital contributions
 *** to the expectation value for property XDIPLEN  :

     Inactive       1  1 in sym 1 :    -0.00000000
     Inactive       2  2 in sym 1 :     0.00000000
     Inactive       3  3 in sym 1 :    -0.00000000
     Inactive       4  4 in sym 1 :    -0.00000000
     Inactive       5  5 in sym 1 :     0.00000000
     Inactive       6  6 in sym 1 :     0.00000000
     Inactive       7  7 in sym 1 :     0.00000000
     Inactive       8  8 in sym 1 :    -0.00000000
     Inactive       9  9 in sym 1 :    -0.00000000
     Inactive      10 10 in sym 1 :    -0.00000000

     XDIPLEN  inactive part: 1.84282976D-14
     XDIPLEN  active part  : 0.00000000D+00
     XDIPLEN  total        : 1.84282976D-14

 *** Individual non-zero orbital contributions
 *** to the expectation value for property YDIPLEN  :

     Inactive       1  1 in sym 1 :    -0.00000000
     Inactive       2  2 in sym 1 :     0.00000000
     Inactive       3  3 in sym 1 :     0.00000000
     Inactive       4  4 in sym 1 :    -0.00000000
     Inactive       5  5 in sym 1 :     0.00000000
     Inactive       6  6 in sym 1 :    -0.00000000
     Inactive       7  7 in sym 1 :     0.00000000
     Inactive       8  8 in sym 1 :    -0.00000000
     Inactive       9  9 in sym 1 :    -0.00000000
     Inactive      10 10 in sym 1 :     0.00000000

     YDIPLEN  inactive part: 3.75151396D-16
     YDIPLEN  active part  : 0.00000000D+00
     YDIPLEN  total        : 3.75151396D-16

 *** Individual non-zero orbital contributions
 *** to the expectation value for property ZDIPLEN  :

     Inactive       1  1 in sym 1 :    12.94223864
     Inactive       2  2 in sym 1 :     0.00047930
     Inactive       3  3 in sym 1 :    13.57241606
     Inactive       4  4 in sym 1 :     0.64257482
     Inactive       5  5 in sym 1 :    13.76539645
     Inactive       6  6 in sym 1 :     0.85111008
     Inactive       7  7 in sym 1 :    12.30185475
     Inactive       8  8 in sym 1 :     0.25428196
     Inactive       9  9 in sym 1 :    13.02391960
     Inactive      10 10 in sym 1 :     0.09493474

     ZDIPLEN  inactive part:    67.44920640
     ZDIPLEN  active part  :     0.00000000
     ZDIPLEN  total        :    67.44920640


 Linear response calculations for quadratic response
 - singlet property operator of symmetry    1


 Perturbation symmetry.     KSYMOP:       1
 Perturbation spin symmetry.TRPLET:       F
 Orbital variables.         KZWOPT:     380
 Configuration variables.   KZCONF:       0
 Total number of variables. KZVAR :     380


 QRLRVE -- linear response calculation for symmetry  1
 QRLRVE -- operator label : XDIPLEN 
 QRLRVE -- operator spin  :   0
 QRLRVE -- frequencies :  0.000000



 <<<  SOLVING SETS OF LINEAR EQUATIONS FOR LINEAR RESPONSE PROPERTIES >>>

 Operator symmetry =  1; triplet =   F


 *** THE REQUESTED    1 SOLUTION VECTORS CONVERGED

 Convergence of RSP solution vectors, threshold = 1.00D-03
 ---------------------------------------------------------------
 (dimension of paired reduced space:   10)
 RSP solution vector no.    1; norm of residual   5.15D-04

 *** RSPCTL MICROITERATIONS CONVERGED

 QRLRVE: SINGLET SOLUTION FOR SYMMETRY    1    LABEL   XDIPLEN     FREQUENCY   0.000000D+00

@ QRLRVE:  << XDIPLEN  ; XDIPLEN  >> (   0.00000):     13.4225785707    

@ QRLRVE:  << YDIPLEN  ; XDIPLEN  >> (   0.00000):   -5.106503254282E-15

@ QRLRVE:  << ZDIPLEN  ; XDIPLEN  >> (   0.00000):    9.768930756476E-15


 QRLRVE -- linear response calculation for symmetry  1
 QRLRVE -- operator label : YDIPLEN 
 QRLRVE -- operator spin  :   0
 QRLRVE -- frequencies :  0.000000



 <<<  SOLVING SETS OF LINEAR EQUATIONS FOR LINEAR RESPONSE PROPERTIES >>>

 Operator symmetry =  1; triplet =   F


 *** THE REQUESTED    1 SOLUTION VECTORS CONVERGED

 Convergence of RSP solution vectors, threshold = 1.00D-03
 ---------------------------------------------------------------
 (dimension of paired reduced space:   10)
 RSP solution vector no.    1; norm of residual   6.80D-04

 *** RSPCTL MICROITERATIONS CONVERGED

 QRLRVE: SINGLET SOLUTION FOR SYMMETRY    1    LABEL   YDIPLEN     FREQUENCY   0.000000D+00

@ QRLRVE:  << XDIPLEN  ; YDIPLEN  >> (   0.00000):   -5.129589334797E-15

@ QRLRVE:  << YDIPLEN  ; YDIPLEN  >> (   0.00000):     5.98973592691    

@ QRLRVE:  << ZDIPLEN  ; YDIPLEN  >> (   0.00000):    5.237654862346E-16


 QRLRVE -- linear response calculation for symmetry  1
 QRLRVE -- operator label : ZDIPLEN 
 QRLRVE -- operator spin  :   0
 QRLRVE -- frequencies :  0.000000



 <<<  SOLVING SETS OF LINEAR EQUATIONS FOR LINEAR RESPONSE PROPERTIES >>>

 Operator symmetry =  1; triplet =   F


 *** THE REQUESTED    1 SOLUTION VECTORS CONVERGED

 Convergence of RSP solution vectors, threshold = 1.00D-03
 ---------------------------------------------------------------
 (dimension of paired reduced space:   12)
 RSP solution vector no.    1; norm of residual   5.14D-04

 *** RSPCTL MICROITERATIONS CONVERGED

 QRLRVE: SINGLET SOLUTION FOR SYMMETRY    1    LABEL   ZDIPLEN     FREQUENCY   0.000000D+00

@ QRLRVE:  << XDIPLEN  ; ZDIPLEN  >> (   0.00000):    7.795568774323E-15

@ QRLRVE:  << YDIPLEN  ; ZDIPLEN  >> (   0.00000):    4.655542596379E-16

@ QRLRVE:  << ZDIPLEN  ; ZDIPLEN  >> (   0.00000):     11.0756878444    
 
 ======================================================================
 >>>>>>>>    L I N E A R   R E S P O N S E   F U N C T I O N   <<<<<<<<
 ======================================================================

 The -<<A;B>>(omega_b) functions from vectors generated
 in a *QUADRA calculation of <<A;B,C>>(omega_b,omega_c)

 Note: the accuracy of off-diagonal elements will be linear
 in the convergence threshold THCLR =  1.00D-03


 Perturbation symmetry.     KSYMOP:       1
 Perturbation spin symmetry.TRPLET:       F
 Orbital variables.         KZWOPT:     380
 Configuration variables.   KZCONF:       0
 Total number of variables. KZVAR :     380

@ Singlet linear response function in a.u.

@ A operator, symmetry, frequency:   XDIPLEN    1 -0.000000
@ B operator, symmetry, frequency:   XDIPLEN    1  0.000000

@ Value of linear response -<<A;B>>(omega):      13.422578570745

@ Singlet linear response function in a.u.

@ A operator, symmetry, frequency:   YDIPLEN    1 -0.000000
@ B operator, symmetry, frequency:   XDIPLEN    1  0.000000

@ Value of linear response -<<A;B>>(omega):      -0.000000000000

@ Singlet linear response function in a.u.

@ A operator, symmetry, frequency:   ZDIPLEN    1 -0.000000
@ B operator, symmetry, frequency:   XDIPLEN    1  0.000000

@ Value of linear response -<<A;B>>(omega):       0.000000000000

@ Singlet linear response function in a.u.

@ A operator, symmetry, frequency:   XDIPLEN    1 -0.000000
@ B operator, symmetry, frequency:   YDIPLEN    1  0.000000

@ Value of linear response -<<A;B>>(omega):      -0.000000000000

@ Singlet linear response function in a.u.

@ A operator, symmetry, frequency:   YDIPLEN    1 -0.000000
@ B operator, symmetry, frequency:   YDIPLEN    1  0.000000

@ Value of linear response -<<A;B>>(omega):       5.989735926913

@ Singlet linear response function in a.u.

@ A operator, symmetry, frequency:   ZDIPLEN    1 -0.000000
@ B operator, symmetry, frequency:   YDIPLEN    1  0.000000

@ Value of linear response -<<A;B>>(omega):       0.000000000000

@ Singlet linear response function in a.u.

@ A operator, symmetry, frequency:   XDIPLEN    1 -0.000000
@ B operator, symmetry, frequency:   ZDIPLEN    1  0.000000

@ Value of linear response -<<A;B>>(omega):       0.000000000000

@ Singlet linear response function in a.u.

@ A operator, symmetry, frequency:   YDIPLEN    1 -0.000000
@ B operator, symmetry, frequency:   ZDIPLEN    1  0.000000

@ Value of linear response -<<A;B>>(omega):       0.000000000000

@ Singlet linear response function in a.u.

@ A operator, symmetry, frequency:   ZDIPLEN    1 -0.000000
@ B operator, symmetry, frequency:   ZDIPLEN    1  0.000000

@ Value of linear response -<<A;B>>(omega):      11.075687844357


  Results from quadratic response calculation
 --------------------------------------------

@ B-freq = 0.000000  C-freq = 0.000000     beta(X;X,X) =      0.00000000
@ B-freq = 0.000000  C-freq = 0.000000     beta(Y;X,X) =     -0.00000000
@ B-freq = 0.000000  C-freq = 0.000000     beta(Z;X,X) =    -31.44187946
@ B-freq = 0.000000  C-freq = 0.000000     beta(X;Y,X) = beta(Y,X,X)
@ B-freq = 0.000000  C-freq = 0.000000     beta(X;Y,X) =     -0.00000000
@ B-freq = 0.000000  C-freq = 0.000000     beta(Y;Y,X) =      0.00000000
@ B-freq = 0.000000  C-freq = 0.000000     beta(Z;Y,X) =      0.00000000
@ B-freq = 0.000000  C-freq = 0.000000     beta(X;Z,X) = beta(Z,X,X)
@ B-freq = 0.000000  C-freq = 0.000000     beta(Y;Z,X) = beta(Z,Y,X)
@ B-freq = 0.000000  C-freq = 0.000000     beta(X;Z,X) =    -31.44188018
@ B-freq = 0.000000  C-freq = 0.000000     beta(Y;Z,X) =      0.00000000
@ B-freq = 0.000000  C-freq = 0.000000     beta(Z;Z,X) =      0.00000000
@ B-freq = 0.000000  C-freq = 0.000000     beta(X;X,Y) = beta(Y,X,X)
@ B-freq = 0.000000  C-freq = 0.000000     beta(Y;X,Y) = beta(Y,Y,X)
@ B-freq = 0.000000  C-freq = 0.000000     beta(Z;X,Y) = beta(Z,Y,X)
@ B-freq = 0.000000  C-freq = 0.000000     beta(X;Y,Y) = beta(Y,Y,X)
@ B-freq = 0.000000  C-freq = 0.000000     beta(X;Y,Y) =      0.00000000
@ B-freq = 0.000000  C-freq = 0.000000     beta(Y;Y,Y) =     -0.00000000
@ B-freq = 0.000000  C-freq = 0.000000     beta(Z;Y,Y) =     -4.41364435
@ B-freq = 0.000000  C-freq = 0.000000     beta(X;Z,Y) = beta(Z,Y,X)
@ B-freq = 0.000000  C-freq = 0.000000     beta(Y;Z,Y) = beta(Z,Y,Y)
@ B-freq = 0.000000  C-freq = 0.000000     beta(X;Z,Y) =      0.00000000
@ B-freq = 0.000000  C-freq = 0.000000     beta(Y;Z,Y) =     -4.41364432
@ B-freq = 0.000000  C-freq = 0.000000     beta(Z;Z,Y) =     -0.00000000
@ B-freq = 0.000000  C-freq = 0.000000     beta(X;X,Z) = beta(Z,X,X)
@ B-freq = 0.000000  C-freq = 0.000000     beta(Y;X,Z) = beta(Z,Y,X)
@ B-freq = 0.000000  C-freq = 0.000000     beta(Z;X,Z) = beta(Z,Z,X)
@ B-freq = 0.000000  C-freq = 0.000000     beta(X;Y,Z) = beta(Z,Y,X)
@ B-freq = 0.000000  C-freq = 0.000000     beta(Y;Y,Z) = beta(Z,Y,Y)
@ B-freq = 0.000000  C-freq = 0.000000     beta(Z;Y,Z) = beta(Z,Z,Y)
@ B-freq = 0.000000  C-freq = 0.000000     beta(X;Z,Z) = beta(Z,Z,X)
@ B-freq = 0.000000  C-freq = 0.000000     beta(Y;Z,Z) = beta(Z,Z,Y)
@ B-freq = 0.000000  C-freq = 0.000000     beta(X;Z,Z) =      0.00000000
@ B-freq = 0.000000  C-freq = 0.000000     beta(Y;Z,Z) =     -0.00000000
@ B-freq = 0.000000  C-freq = 0.000000     beta(Z;Z,Z) =    -12.74371195

 >>>> Total CPU  time used in RESPONSE:   7.76 seconds
 >>>> Total wall time used in RESPONSE:   7.76 seconds


                   .-------------------------------------------.
                   | End of Dynamic Property Section (RESPONS) |
                   `-------------------------------------------'

 >>>> Total CPU  time used in DALTON:   9.84 seconds
 >>>> Total wall time used in DALTON:   9.84 seconds

 
     Date and time (Linux)  : Fri Jul  4 14:04:45 2014
     Host name              : supermario                              
